<?xml version="1.0" encoding="UTF-8"?>

<!-- generated on 2024-07-15 16:24:46 by Eclipse SUMO sumo Version 1.19.0
<configuration xmlns:xsi="http://www.w3.org/2001/XMLSchema-instance" xsi:noNamespaceSchemaLocation="http://sumo.dlr.de/xsd/sumoConfiguration.xsd">

    <input>
        <net-file value="sumo_files/mergingP.net.xml"/>
        <route-files value="sumo_files/mergingP.rou.xml"/>
    </input>

    <output>
        <tripinfo-output value="tripinfo.xml"/>
    </output>

    <processing>
        <collision.action value="remove"/>
        <collision.check-junctions value="true"/>
    </processing>

    <report>
        <no-step-log value="true"/>
    </report>

    <traci_server>
        <remote-port value="36157"/>
    </traci_server>

    <random_number>
        <random value="true"/>
    </random_number>

</configuration>
-->

<tripinfos xmlns:xsi="http://www.w3.org/2001/XMLSchema-instance" xsi:noNamespaceSchemaLocation="http://sumo.dlr.de/xsd/tripinfo_file.xsd">
    <tripinfo id="f_0.0" depart="0.00" departLane="E2_1" departPos="5.10" departSpeed="0.00" departDelay="0.00" arrival="55.00" arrivalLane="E0_1" arrivalPos="246.00" arrivalSpeed="12.21" duration="55.00" routeLength="634.90" waitingTime="0.00" waitingCount="0" stopTime="0.00" timeLoss="2.13" rerouteNo="1" devices="tripinfo_f_0.0 routing_f_0.0" vType="secondLane" speedFactor="0.90" vaporized=""/>
    <tripinfo id="f_4.0" depart="0.00" departLane="E2_3" departPos="5.10" departSpeed="0.00" departDelay="0.00" arrival="55.00" arrivalLane="E0_3" arrivalPos="246.00" arrivalSpeed="12.21" duration="55.00" routeLength="634.90" waitingTime="0.00" waitingCount="0" stopTime="0.00" timeLoss="2.13" rerouteNo="0" devices="tripinfo_f_4.0 routing_f_4.0" vType="secondLane" speedFactor="1.05" vaporized=""/>
    <tripinfo id="f_1.0" depart="2.00" departLane="E2_0" departPos="5.10" departSpeed="0.00" departDelay="0.00" arrival="56.00" arrivalLane="E0_0" arrivalPos="246.00" arrivalSpeed="12.38" duration="54.00" routeLength="634.90" waitingTime="0.00" waitingCount="0" stopTime="0.00" timeLoss="2.17" rerouteNo="1" devices="tripinfo_f_1.0 routing_f_1.0" vType="aggressive@f_1.0" speedFactor="1.04" vaporized=""/>
    <tripinfo id="f_3.0" depart="3.00" departLane="E2_2" departPos="5.10" departSpeed="0.00" departDelay="0.00" arrival="58.00" arrivalLane="E0_2" arrivalPos="246.00" arrivalSpeed="12.21" duration="55.00" routeLength="634.90" waitingTime="0.00" waitingCount="0" stopTime="0.00" timeLoss="2.13" rerouteNo="0" devices="tripinfo_f_3.0 routing_f_3.0" vType="secondLane" speedFactor="0.85" vaporized=""/>
    <tripinfo id="f_0.1" depart="2.00" departLane="E2_1" departPos="5.10" departSpeed="0.00" departDelay="1.00" arrival="59.00" arrivalLane="E0_1" arrivalPos="246.00" arrivalSpeed="12.20" duration="57.00" routeLength="634.90" waitingTime="0.00" waitingCount="0" stopTime="0.00" timeLoss="4.55" rerouteNo="1" devices="tripinfo_f_0.1 routing_f_0.1" vType="secondLane" speedFactor="1.21" vaporized=""/>
    <tripinfo id="f_4.1" depart="2.00" departLane="E2_3" departPos="5.10" departSpeed="0.00" departDelay="0.00" arrival="59.00" arrivalLane="E0_3" arrivalPos="246.00" arrivalSpeed="12.20" duration="57.00" routeLength="634.90" waitingTime="0.00" waitingCount="0" stopTime="0.00" timeLoss="4.55" rerouteNo="0" devices="tripinfo_f_4.1 routing_f_4.1" vType="secondLane" speedFactor="1.13" vaporized=""/>
    <tripinfo id="f_5.0" depart="6.00" departLane="E2_4" departPos="5.10" departSpeed="0.00" departDelay="0.00" arrival="61.00" arrivalLane="E0_4" arrivalPos="246.00" arrivalSpeed="12.21" duration="55.00" routeLength="634.90" waitingTime="0.00" waitingCount="0" stopTime="0.00" timeLoss="2.13" rerouteNo="0" devices="tripinfo_f_5.0 routing_f_5.0" vType="secondLane" speedFactor="1.19" vaporized=""/>
    <tripinfo id="f_0.2" depart="5.00" departLane="E2_1" departPos="5.10" departSpeed="0.00" departDelay="0.00" arrival="63.00" arrivalLane="E0_1" arrivalPos="246.00" arrivalSpeed="12.20" duration="58.00" routeLength="634.90" waitingTime="0.00" waitingCount="0" stopTime="0.00" timeLoss="5.19" rerouteNo="1" devices="tripinfo_f_0.2 routing_f_0.2" vType="secondLane" speedFactor="0.97" vaporized=""/>
    <tripinfo id="f_4.2" depart="6.00" departLane="E2_3" departPos="5.10" departSpeed="0.00" departDelay="0.00" arrival="63.00" arrivalLane="E0_3" arrivalPos="246.00" arrivalSpeed="12.20" duration="57.00" routeLength="634.90" waitingTime="0.00" waitingCount="0" stopTime="0.00" timeLoss="4.28" rerouteNo="0" devices="tripinfo_f_4.2 routing_f_4.2" vType="secondLane" speedFactor="0.93" vaporized=""/>
    <tripinfo id="f_3.1" depart="7.00" departLane="E2_2" departPos="5.10" departSpeed="0.00" departDelay="0.00" arrival="63.00" arrivalLane="E0_2" arrivalPos="246.00" arrivalSpeed="12.21" duration="56.00" routeLength="634.90" waitingTime="0.00" waitingCount="0" stopTime="0.00" timeLoss="3.11" rerouteNo="0" devices="tripinfo_f_3.1 routing_f_3.1" vType="secondLane" speedFactor="0.94" vaporized=""/>
    <tripinfo id="f_5.1" depart="8.00" departLane="E2_4" departPos="5.10" departSpeed="0.00" departDelay="0.00" arrival="65.00" arrivalLane="E0_4" arrivalPos="246.00" arrivalSpeed="12.20" duration="57.00" routeLength="634.90" waitingTime="0.00" waitingCount="0" stopTime="0.00" timeLoss="4.55" rerouteNo="0" devices="tripinfo_f_5.1 routing_f_5.1" vType="secondLane" speedFactor="1.03" vaporized=""/>
    <tripinfo id="f_0.3" depart="8.00" departLane="E2_1" departPos="5.10" departSpeed="0.00" departDelay="1.00" arrival="66.00" arrivalLane="E0_1" arrivalPos="246.00" arrivalSpeed="12.18" duration="58.00" routeLength="634.90" waitingTime="0.00" waitingCount="0" stopTime="0.00" timeLoss="5.50" rerouteNo="1" devices="tripinfo_f_0.3 routing_f_0.3" vType="secondLane" speedFactor="0.91" vaporized=""/>
    <tripinfo id="f_3.2" depart="9.00" departLane="E2_2" departPos="5.10" departSpeed="0.00" departDelay="1.00" arrival="67.00" arrivalLane="E0_2" arrivalPos="246.00" arrivalSpeed="12.20" duration="58.00" routeLength="634.90" waitingTime="0.00" waitingCount="0" stopTime="0.00" timeLoss="5.03" rerouteNo="0" devices="tripinfo_f_3.2 routing_f_3.2" vType="secondLane" speedFactor="1.14" vaporized=""/>
    <tripinfo id="f_4.3" depart="12.00" departLane="E2_3" departPos="5.10" departSpeed="0.00" departDelay="0.00" arrival="67.00" arrivalLane="E0_3" arrivalPos="246.00" arrivalSpeed="12.20" duration="55.00" routeLength="634.90" waitingTime="0.00" waitingCount="0" stopTime="0.00" timeLoss="2.99" rerouteNo="0" devices="tripinfo_f_4.3 routing_f_4.3" vType="secondLane" speedFactor="1.00" vaporized=""/>
    <tripinfo id="f_0.4" depart="11.00" departLane="E2_1" departPos="5.10" departSpeed="0.00" departDelay="2.00" arrival="69.00" arrivalLane="E0_1" arrivalPos="246.00" arrivalSpeed="12.17" duration="58.00" routeLength="634.90" waitingTime="0.00" waitingCount="0" stopTime="0.00" timeLoss="5.61" rerouteNo="1" devices="tripinfo_f_0.4 routing_f_0.4" vType="secondLane" speedFactor="0.89" vaporized=""/>
    <tripinfo id="f_5.2" depart="11.00" departLane="E2_4" departPos="5.10" departSpeed="0.00" departDelay="1.00" arrival="69.00" arrivalLane="E0_4" arrivalPos="246.00" arrivalSpeed="12.20" duration="58.00" routeLength="634.90" waitingTime="0.00" waitingCount="0" stopTime="0.00" timeLoss="5.19" rerouteNo="0" devices="tripinfo_f_5.2 routing_f_5.2" vType="secondLane" speedFactor="0.95" vaporized=""/>
    <tripinfo id="f_1.1" depart="4.00" departLane="E2_0" departPos="5.10" departSpeed="0.00" departDelay="0.00" arrival="70.00" arrivalLane="E0_0" arrivalPos="246.00" arrivalSpeed="10.06" duration="66.00" routeLength="634.90" waitingTime="0.00" waitingCount="0" stopTime="0.00" timeLoss="2.56" rerouteNo="1" devices="tripinfo_f_1.1 routing_f_1.1" vType="aggressive@f_1.1" speedFactor="1.07" vaporized=""/>
    <tripinfo id="f_3.3" depart="12.00" departLane="E2_2" departPos="5.10" departSpeed="0.00" departDelay="2.00" arrival="70.00" arrivalLane="E0_2" arrivalPos="246.00" arrivalSpeed="12.18" duration="58.00" routeLength="634.90" waitingTime="0.00" waitingCount="0" stopTime="0.00" timeLoss="5.50" rerouteNo="0" devices="tripinfo_f_3.3 routing_f_3.3" vType="secondLane" speedFactor="0.99" vaporized=""/>
    <tripinfo id="f_1.2" depart="7.00" departLane="E2_0" departPos="5.10" departSpeed="0.00" departDelay="2.00" arrival="71.00" arrivalLane="E0_0" arrivalPos="246.00" arrivalSpeed="11.46" duration="64.00" routeLength="634.90" waitingTime="0.00" waitingCount="0" stopTime="0.00" timeLoss="14.84" rerouteNo="1" devices="tripinfo_f_1.2 routing_f_1.2" vType="aggressive@f_1.2" speedFactor="1.09" vaporized=""/>
    <tripinfo id="f_0.5" depart="14.00" departLane="E2_1" departPos="5.10" departSpeed="0.00" departDelay="4.00" arrival="72.00" arrivalLane="E0_1" arrivalPos="246.00" arrivalSpeed="12.17" duration="58.00" routeLength="634.90" waitingTime="0.00" waitingCount="0" stopTime="0.00" timeLoss="5.61" rerouteNo="1" devices="tripinfo_f_0.5 routing_f_0.5" vType="secondLane" speedFactor="0.93" vaporized=""/>
    <tripinfo id="f_5.3" depart="14.00" departLane="E2_4" departPos="5.10" departSpeed="0.00" departDelay="3.00" arrival="72.00" arrivalLane="E0_4" arrivalPos="246.00" arrivalSpeed="12.18" duration="58.00" routeLength="634.90" waitingTime="0.00" waitingCount="0" stopTime="0.00" timeLoss="5.50" rerouteNo="0" devices="tripinfo_f_5.3 routing_f_5.3" vType="secondLane" speedFactor="0.88" vaporized=""/>
    <tripinfo id="f_4.4" depart="16.00" departLane="E2_3" departPos="5.10" departSpeed="0.00" departDelay="0.00" arrival="72.00" arrivalLane="E0_3" arrivalPos="246.00" arrivalSpeed="12.21" duration="56.00" routeLength="634.90" waitingTime="0.00" waitingCount="0" stopTime="0.00" timeLoss="3.34" rerouteNo="0" devices="tripinfo_f_4.4 routing_f_4.4" vType="secondLane" speedFactor="1.27" vaporized=""/>
    <tripinfo id="f_3.4" depart="15.00" departLane="E2_2" departPos="5.10" departSpeed="0.00" departDelay="2.00" arrival="73.00" arrivalLane="E0_2" arrivalPos="246.00" arrivalSpeed="12.18" duration="58.00" routeLength="634.90" waitingTime="0.00" waitingCount="0" stopTime="0.00" timeLoss="5.71" rerouteNo="0" devices="tripinfo_f_3.4 routing_f_3.4" vType="secondLane" speedFactor="0.95" vaporized=""/>
    <tripinfo id="f_0.6" depart="17.00" departLane="E2_1" departPos="5.10" departSpeed="0.00" departDelay="6.00" arrival="75.00" arrivalLane="E0_1" arrivalPos="246.00" arrivalSpeed="12.17" duration="58.00" routeLength="634.90" waitingTime="0.00" waitingCount="0" stopTime="0.00" timeLoss="5.58" rerouteNo="1" devices="tripinfo_f_0.6 routing_f_0.6" vType="secondLane" speedFactor="1.04" vaporized=""/>
    <tripinfo id="f_5.4" depart="17.00" departLane="E2_4" departPos="5.10" departSpeed="0.00" departDelay="5.00" arrival="75.00" arrivalLane="E0_4" arrivalPos="246.00" arrivalSpeed="12.17" duration="58.00" routeLength="634.90" waitingTime="0.00" waitingCount="0" stopTime="0.00" timeLoss="5.61" rerouteNo="0" devices="tripinfo_f_5.4 routing_f_5.4" vType="secondLane" speedFactor="1.07" vaporized=""/>
    <tripinfo id="f_3.5" depart="18.00" departLane="E2_2" departPos="5.10" departSpeed="0.00" departDelay="4.00" arrival="76.00" arrivalLane="E0_2" arrivalPos="246.00" arrivalSpeed="12.17" duration="58.00" routeLength="634.90" waitingTime="0.00" waitingCount="0" stopTime="0.00" timeLoss="5.77" rerouteNo="0" devices="tripinfo_f_3.5 routing_f_3.5" vType="secondLane" speedFactor="0.82" vaporized=""/>
    <tripinfo id="f_4.5" depart="18.00" departLane="E2_3" departPos="5.10" departSpeed="0.00" departDelay="1.00" arrival="76.00" arrivalLane="E0_3" arrivalPos="246.00" arrivalSpeed="12.20" duration="58.00" routeLength="634.90" waitingTime="0.00" waitingCount="0" stopTime="0.00" timeLoss="5.12" rerouteNo="0" devices="tripinfo_f_4.5 routing_f_4.5" vType="secondLane" speedFactor="0.96" vaporized=""/>
    <tripinfo id="f_0.7" depart="20.00" departLane="E2_1" departPos="5.10" departSpeed="0.00" departDelay="8.00" arrival="78.00" arrivalLane="E0_1" arrivalPos="246.00" arrivalSpeed="12.17" duration="58.00" routeLength="634.90" waitingTime="0.00" waitingCount="0" stopTime="0.00" timeLoss="5.53" rerouteNo="1" devices="tripinfo_f_0.7 routing_f_0.7" vType="secondLane" speedFactor="0.92" vaporized=""/>
    <tripinfo id="f_5.5" depart="20.00" departLane="E2_4" departPos="5.10" departSpeed="0.00" departDelay="7.00" arrival="78.00" arrivalLane="E0_4" arrivalPos="246.00" arrivalSpeed="12.17" duration="58.00" routeLength="634.90" waitingTime="0.00" waitingCount="0" stopTime="0.00" timeLoss="5.61" rerouteNo="0" devices="tripinfo_f_5.5 routing_f_5.5" vType="secondLane" speedFactor="1.10" vaporized=""/>
    <tripinfo id="f_2.0" depart="10.00" departLane="E2_0" departPos="5.10" departSpeed="0.00" departDelay="5.00" arrival="79.00" arrivalLane="E0_0" arrivalPos="246.00" arrivalSpeed="9.63" duration="69.00" routeLength="634.90" waitingTime="0.00" waitingCount="0" stopTime="0.00" timeLoss="2.89" rerouteNo="1" devices="tripinfo_f_2.0 routing_f_2.0" vType="cooperative@f_2.0" speedFactor="0.95" vaporized=""/>
    <tripinfo id="f_3.6" depart="21.00" departLane="E2_2" departPos="5.10" departSpeed="0.00" departDelay="6.00" arrival="79.00" arrivalLane="E0_2" arrivalPos="246.00" arrivalSpeed="12.17" duration="58.00" routeLength="634.90" waitingTime="0.00" waitingCount="0" stopTime="0.00" timeLoss="5.75" rerouteNo="0" devices="tripinfo_f_3.6 routing_f_3.6" vType="secondLane" speedFactor="1.07" vaporized=""/>
    <tripinfo id="f_4.6" depart="21.00" departLane="E2_3" departPos="5.10" departSpeed="0.00" departDelay="3.00" arrival="79.00" arrivalLane="E0_3" arrivalPos="246.00" arrivalSpeed="12.18" duration="58.00" routeLength="634.90" waitingTime="0.00" waitingCount="0" stopTime="0.00" timeLoss="5.56" rerouteNo="0" devices="tripinfo_f_4.6 routing_f_4.6" vType="secondLane" speedFactor="1.18" vaporized=""/>
    <tripinfo id="f_1.3" depart="13.00" departLane="E2_0" departPos="5.10" departSpeed="0.00" departDelay="7.00" arrival="80.00" arrivalLane="E0_0" arrivalPos="246.00" arrivalSpeed="11.17" duration="67.00" routeLength="634.90" waitingTime="0.00" waitingCount="0" stopTime="0.00" timeLoss="17.54" rerouteNo="1" devices="tripinfo_f_1.3 routing_f_1.3" vType="aggressive@f_1.3" speedFactor="0.97" vaporized=""/>
    <tripinfo id="f_0.8" depart="23.00" departLane="E2_1" departPos="5.10" departSpeed="0.00" departDelay="10.00" arrival="81.00" arrivalLane="E0_1" arrivalPos="246.00" arrivalSpeed="12.17" duration="58.00" routeLength="634.90" waitingTime="0.00" waitingCount="0" stopTime="0.00" timeLoss="5.48" rerouteNo="1" devices="tripinfo_f_0.8 routing_f_0.8" vType="secondLane" speedFactor="0.86" vaporized=""/>
    <tripinfo id="f_5.6" depart="23.00" departLane="E2_4" departPos="5.10" departSpeed="0.00" departDelay="6.00" arrival="81.00" arrivalLane="E0_4" arrivalPos="246.00" arrivalSpeed="12.17" duration="58.00" routeLength="634.90" waitingTime="0.00" waitingCount="0" stopTime="0.00" timeLoss="5.58" rerouteNo="0" devices="tripinfo_f_5.6 routing_f_5.6" vType="secondLane" speedFactor="0.86" vaporized=""/>
    <tripinfo id="f_3.7" depart="24.00" departLane="E2_2" departPos="5.10" departSpeed="0.00" departDelay="7.00" arrival="82.00" arrivalLane="E0_2" arrivalPos="246.00" arrivalSpeed="12.17" duration="58.00" routeLength="634.90" waitingTime="0.00" waitingCount="0" stopTime="0.00" timeLoss="5.68" rerouteNo="0" devices="tripinfo_f_3.7 routing_f_3.7" vType="secondLane" speedFactor="0.79" vaporized=""/>
    <tripinfo id="f_4.7" depart="24.00" departLane="E2_3" departPos="5.10" departSpeed="0.00" departDelay="4.00" arrival="82.00" arrivalLane="E0_3" arrivalPos="246.00" arrivalSpeed="12.18" duration="58.00" routeLength="634.90" waitingTime="0.00" waitingCount="0" stopTime="0.00" timeLoss="5.74" rerouteNo="0" devices="tripinfo_f_4.7 routing_f_4.7" vType="secondLane" speedFactor="0.97" vaporized=""/>
    <tripinfo id="f_2.1" depart="16.00" departLane="E2_0" departPos="5.10" departSpeed="0.00" departDelay="5.00" arrival="83.00" arrivalLane="E0_0" arrivalPos="246.00" arrivalSpeed="10.87" duration="67.00" routeLength="634.90" waitingTime="0.00" waitingCount="0" stopTime="0.00" timeLoss="8.28" rerouteNo="1" devices="tripinfo_f_2.1 routing_f_2.1" vType="cooperative@f_2.1" speedFactor="1.00" vaporized=""/>
    <tripinfo id="f_1.4" depart="19.00" departLane="E2_0" departPos="5.10" departSpeed="0.00" departDelay="7.00" arrival="84.00" arrivalLane="E0_0" arrivalPos="246.00" arrivalSpeed="11.10" duration="65.00" routeLength="634.90" waitingTime="0.00" waitingCount="0" stopTime="0.00" timeLoss="9.32" rerouteNo="1" devices="tripinfo_f_1.4 routing_f_1.4" vType="aggressive@f_1.4" speedFactor="1.00" vaporized=""/>
    <tripinfo id="f_0.9" depart="26.00" departLane="E2_1" departPos="5.10" departSpeed="0.00" departDelay="12.00" arrival="84.00" arrivalLane="E0_1" arrivalPos="246.00" arrivalSpeed="12.17" duration="58.00" routeLength="634.90" waitingTime="0.00" waitingCount="0" stopTime="0.00" timeLoss="5.45" rerouteNo="1" devices="tripinfo_f_0.9 routing_f_0.9" vType="secondLane" speedFactor="1.07" vaporized=""/>
    <tripinfo id="f_5.7" depart="26.00" departLane="E2_4" departPos="5.10" departSpeed="0.00" departDelay="6.00" arrival="84.00" arrivalLane="E0_4" arrivalPos="246.00" arrivalSpeed="12.17" duration="58.00" routeLength="634.90" waitingTime="0.00" waitingCount="0" stopTime="0.00" timeLoss="5.53" rerouteNo="0" devices="tripinfo_f_5.7 routing_f_5.7" vType="secondLane" speedFactor="0.80" vaporized=""/>
    <tripinfo id="f_3.8" depart="27.00" departLane="E2_2" departPos="5.10" departSpeed="0.00" departDelay="9.00" arrival="85.00" arrivalLane="E0_2" arrivalPos="246.00" arrivalSpeed="12.17" duration="58.00" routeLength="634.90" waitingTime="0.00" waitingCount="0" stopTime="0.00" timeLoss="5.60" rerouteNo="0" devices="tripinfo_f_3.8 routing_f_3.8" vType="secondLane" speedFactor="0.95" vaporized=""/>
    <tripinfo id="f_4.8" depart="27.00" departLane="E2_3" departPos="5.10" departSpeed="0.00" departDelay="1.00" arrival="85.00" arrivalLane="E0_3" arrivalPos="246.00" arrivalSpeed="12.17" duration="58.00" routeLength="634.90" waitingTime="0.00" waitingCount="0" stopTime="0.00" timeLoss="5.79" rerouteNo="0" devices="tripinfo_f_4.8 routing_f_4.8" vType="secondLane" speedFactor="1.15" vaporized=""/>
    <tripinfo id="f_0.10" depart="29.00" departLane="E2_1" departPos="5.10" departSpeed="0.00" departDelay="14.00" arrival="87.00" arrivalLane="E0_1" arrivalPos="246.00" arrivalSpeed="12.17" duration="58.00" routeLength="634.90" waitingTime="0.00" waitingCount="0" stopTime="0.00" timeLoss="5.42" rerouteNo="1" devices="tripinfo_f_0.10 routing_f_0.10" vType="secondLane" speedFactor="1.03" vaporized=""/>
    <tripinfo id="f_5.8" depart="29.00" departLane="E2_4" departPos="5.10" departSpeed="0.00" departDelay="3.00" arrival="87.00" arrivalLane="E0_4" arrivalPos="246.00" arrivalSpeed="12.17" duration="58.00" routeLength="634.90" waitingTime="0.00" waitingCount="0" stopTime="0.00" timeLoss="5.48" rerouteNo="0" devices="tripinfo_f_5.8 routing_f_5.8" vType="secondLane" speedFactor="1.17" vaporized=""/>
    <tripinfo id="f_3.9" depart="30.00" departLane="E2_2" departPos="5.10" departSpeed="0.00" departDelay="5.00" arrival="88.00" arrivalLane="E0_2" arrivalPos="246.00" arrivalSpeed="12.17" duration="58.00" routeLength="634.90" waitingTime="0.00" waitingCount="0" stopTime="0.00" timeLoss="5.53" rerouteNo="0" devices="tripinfo_f_3.9 routing_f_3.9" vType="secondLane" speedFactor="0.89" vaporized=""/>
    <tripinfo id="f_4.9" depart="30.00" departLane="E2_3" departPos="5.10" departSpeed="0.00" departDelay="1.00" arrival="88.00" arrivalLane="E0_3" arrivalPos="246.00" arrivalSpeed="12.17" duration="58.00" routeLength="634.90" waitingTime="0.00" waitingCount="0" stopTime="0.00" timeLoss="5.76" rerouteNo="0" devices="tripinfo_f_4.9 routing_f_4.9" vType="secondLane" speedFactor="1.05" vaporized=""/>
    <tripinfo id="f_0.11" depart="32.00" departLane="E2_1" departPos="5.10" departSpeed="0.00" departDelay="16.00" arrival="90.00" arrivalLane="E0_1" arrivalPos="246.00" arrivalSpeed="12.17" duration="58.00" routeLength="634.90" waitingTime="0.00" waitingCount="0" stopTime="0.00" timeLoss="5.41" rerouteNo="1" devices="tripinfo_f_0.11 routing_f_0.11" vType="secondLane" speedFactor="1.03" vaporized=""/>
    <tripinfo id="f_5.9" depart="32.00" departLane="E2_4" departPos="5.10" departSpeed="0.00" departDelay="5.00" arrival="90.00" arrivalLane="E0_4" arrivalPos="246.00" arrivalSpeed="12.17" duration="58.00" routeLength="634.90" waitingTime="0.00" waitingCount="0" stopTime="0.00" timeLoss="5.45" rerouteNo="0" devices="tripinfo_f_5.9 routing_f_5.9" vType="secondLane" speedFactor="1.05" vaporized=""/>
    <tripinfo id="f_2.2" depart="22.00" departLane="E2_0" departPos="5.10" departSpeed="0.00" departDelay="4.00" arrival="91.00" arrivalLane="E0_0" arrivalPos="246.00" arrivalSpeed="9.66" duration="69.00" routeLength="634.90" waitingTime="0.00" waitingCount="0" stopTime="0.00" timeLoss="2.94" rerouteNo="1" devices="tripinfo_f_2.2 routing_f_2.2" vType="cooperative@f_2.2" speedFactor="1.06" vaporized=""/>
    <tripinfo id="f_3.10" depart="33.00" departLane="E2_2" departPos="5.10" departSpeed="0.00" departDelay="7.00" arrival="91.00" arrivalLane="E0_2" arrivalPos="246.00" arrivalSpeed="12.17" duration="58.00" routeLength="634.90" waitingTime="0.00" waitingCount="0" stopTime="0.00" timeLoss="5.48" rerouteNo="0" devices="tripinfo_f_3.10 routing_f_3.10" vType="secondLane" speedFactor="1.10" vaporized=""/>
    <tripinfo id="f_1.5" depart="25.00" departLane="E2_0" departPos="5.10" departSpeed="0.00" departDelay="6.00" arrival="92.00" arrivalLane="E0_0" arrivalPos="246.00" arrivalSpeed="11.17" duration="67.00" routeLength="634.90" waitingTime="0.00" waitingCount="0" stopTime="0.00" timeLoss="17.18" rerouteNo="1" devices="tripinfo_f_1.5 routing_f_1.5" vType="aggressive@f_1.5" speedFactor="0.86" vaporized=""/>
    <tripinfo id="f_0.12" depart="35.00" departLane="E2_1" departPos="5.10" departSpeed="0.00" departDelay="18.00" arrival="93.00" arrivalLane="E0_1" arrivalPos="246.00" arrivalSpeed="12.17" duration="58.00" routeLength="634.90" waitingTime="0.00" waitingCount="0" stopTime="0.00" timeLoss="5.40" rerouteNo="1" devices="tripinfo_f_0.12 routing_f_0.12" vType="secondLane" speedFactor="0.91" vaporized=""/>
    <tripinfo id="f_1.6" depart="28.00" departLane="E2_0" departPos="5.10" departSpeed="0.00" departDelay="0.00" arrival="93.00" arrivalLane="E0_0" arrivalPos="246.00" arrivalSpeed="10.75" duration="65.00" routeLength="634.90" waitingTime="0.00" waitingCount="0" stopTime="0.00" timeLoss="10.17" rerouteNo="1" devices="tripinfo_f_1.6 routing_f_1.6" vType="aggressive@f_1.6" speedFactor="1.08" vaporized=""/>
    <tripinfo id="f_5.10" depart="35.00" departLane="E2_4" departPos="5.10" departSpeed="0.00" departDelay="6.00" arrival="93.00" arrivalLane="E0_4" arrivalPos="246.00" arrivalSpeed="12.17" duration="58.00" routeLength="634.90" waitingTime="0.00" waitingCount="0" stopTime="0.00" timeLoss="5.42" rerouteNo="0" devices="tripinfo_f_5.10 routing_f_5.10" vType="secondLane" speedFactor="1.00" vaporized=""/>
    <tripinfo id="f_4.10" depart="38.00"     <tripinfo id="f_1.5" depart="25.00" departLane="E2_0" departPos="5.10" departSpeed="0.00" departDelay="6.00" arrival="96.00" arrivalLane="E0_0" arrivalPos="246.00" arrivalSpeed="10.68" duration="71.00" routeLength="634.90" waitingTime="0.00" waitingCount="0" stopTime="0.00" timeLoss="17.45" rerouteNo="1" devices="tripinfo_f_1.5 routing_f_1.5" vType="aggress    <tripinfo id="f_3.11" depart="36.00" departLane="E2_2" departPos="5.10" departSpeed="0.00" departDelay="7.00" arrival="94.00" arrivalLane="E0_2" arrivalPos="246.00" arrivalSpeed="12.17" duration="58.00" routeLength="634.90" waitingTime="0.00" waitingCount="0" stopTime="0.00" timeLoss="5.44" rerouteNo="0" devices="tripinfo_f_3.11 routing_f_3.11" vType="secondLane" speedFactor="0.95" vaporized=""/>
    <tripinfo id="f_0.13" depart="38.00" departLane="E2_1" departPos="5.10" departSpeed="0.00" departDelay="17.00" arrival="96.00" arrivalLane="E0_1" arrivalPos="246.00" arrivalSpeed="12.17" duration="58.00" routeLength="634.90" waitingTime="0.00" waitingCount="0" stopTime="0.00" timeLoss="5.39" rerouteNo="1" devices="tripinfo_f_0.13 routing_f_0.13" vType="secondLane" speedFactor="1.01" vaporized=""/>
    <tripinfo id="f_5.11" depart="38.00" departLane="E2_4" departPos="5.10" departSpeed="0.00" departDelay="7.00" arrival="96.00" arrivalLane="E0_4" arrivalPos="246.00" arrivalSpeed="12.17" duration="58.00" routeLength="634.90" waitingTime="0.00" waitingCount="0" stopTime="0.00" timeLoss="5.41" rerouteNo="0" devices="tripinfo_f_5.11 routing_f_5.11" vType="secondLane" speedFactor="0.98" vaporized=""/>
    <tripinfo id="f_3.12" depart="39.00" departLane="E2_2" departPos="5.10" departSpeed="0.00" departDelay="9.00" arrival="97.00" arrivalLane="E0_2" arrivalPos="246.00" arrivalSpeed="12.17" duration="58.00" routeLength="634.90" waitingTime="0.00" waitingCount="0" stopTime="0.00" timeLoss="5.42" rerouteNo="0" devices="tripinfo_f_3.12 routing_f_3.12" vType="secondLane" speedFactor="1.00" vaporized=""/>
    <tripinfo id="f_4.11" depart="40.00" departLane="E2_3" departPos="5.10" departSpeed="0.00" departDelay="0.00" arrival="97.00" arrivalLane="E0_3" arrivalPos="246.00" arrivalSpeed="12.20" duration="57.00" routeLength="634.90" waitingTime="0.00" waitingCount="0" stopTime="0.00" timeLoss="4.79" rerouteNo="0" devices="tripinfo_f_4.11 routing_f_4.11" vType="secondLane" speedFactor="0.94" vaporized=""/>
    <tripinfo id="f_0.14" depart="41.00" departLane="E2_1" departPos="5.10" departSpeed="0.00" departDelay="16.00" arrival="99.00" arrivalLane="E0_1" arrivalPos="246.00" arrivalSpeed="12.17" duration="58.00" routeLength="634.90" waitingTime="0.00" waitingCount="0" stopTime="0.00" timeLoss="5.39" rerouteNo="1" devices="tripinfo_f_0.14 routing_f_0.14" vType="secondLane" speedFactor="0.96" vaporized=""/>
    <tripinfo id="f_5.12" depart="41.00" departLane="E2_4" departPos="5.10" departSpeed="0.00" departDelay="8.00" arrival="99.00" arrivalLane="E0_4" arrivalPos="246.00" arrivalSpeed="12.17" duration="58.00" routeLength="634.90" waitingTime="0.00" waitingCount="0" stopTime="0.00" timeLoss="5.40" rerouteNo="0" devices="tripinfo_f_5.12 routing_f_5.12" vType="secondLane" speedFactor="1.07" vaporized=""/>
    <tripinfo id="f_3.13" depart="42.00" departLane="E2_2" departPos="5.10" departSpeed="0.00" departDelay="11.00" arrival="100.00" arrivalLane="E0_2" arrivalPos="246.00" arrivalSpeed="12.17" duration="58.00" routeLength="634.90" waitingTime="0.00" waitingCount="0" stopTime="0.00" timeLoss="5.41" rerouteNo="0" devices="tripinfo_f_3.13 routing_f_3.13" vType="secondLane" speedFactor="0.85" vaporized=""/>
    <tripinfo id="f_4.12" depart="43.00" departLane="E2_3" departPos="5.10" departSpeed="0.00" departDelay="2.00" arrival="101.00" arrivalLane="E0_3" arrivalPos="246.00" arrivalSpeed="12.20" duration="58.00" routeLength="634.90" waitingTime="0.00" waitingCount="0" stopTime="0.00" timeLoss="5.31" rerouteNo="0" devices="tripinfo_f_4.12 routing_f_4.12" vType="secondLane" speedFactor="1.12" vaporized=""/>
    <tripinfo id="f_0.15" depart="44.00" departLane="E2_1" departPos="5.10" departSpeed="0.00" departDelay="18.00" arrival="102.00" arrivalLane="E0_1" arrivalPos="246.00" arrivalSpeed="12.17" duration="58.00" routeLength="634.90" waitingTime="0.00" waitingCount="0" stopTime="0.00" timeLoss="5.39" rerouteNo="1" devices="tripinfo_f_0.15 routing_f_0.15" vType="secondLane" speedFactor="1.13" vaporized=""/>
    <tripinfo id="f_5.13" depart="44.00" departLane="E2_4" departPos="5.10" departSpeed="0.00" departDelay="9.00" arrival="102.00" arrivalLane="E0_4" arrivalPos="246.00" arrivalSpeed="12.17" duration="58.00" routeLength="634.90" waitingTime="0.00" waitingCount="0" stopTime="0.00" timeLoss="5.39" rerouteNo="0" devices="tripinfo_f_5.13 routing_f_5.13" vType="secondLane" speedFactor="1.11" vaporized=""/>
    <tripinfo id="f_3.14" depart="45.00" departLane="E2_2" departPos="5.10" departSpeed="0.00" departDelay="13.00" arrival="103.00" arrivalLane="E0_2" arrivalPos="246.00" arrivalSpeed="12.17" duration="58.00" routeLength="634.90" waitingTime="0.00" waitingCount="0" stopTime="0.00" timeLoss="5.40" rerouteNo="0" devices="tripinfo_f_3.14 routing_f_3.14" vType="secondLane" speedFactor="1.10" vaporized=""/>
    <tripinfo id="f_4.13" depart="46.00" departLane="E2_3" departPos="5.10" departSpeed="0.00" departDelay="3.00" arrival="104.00" arrivalLane="E0_3" arrivalPos="246.00" arrivalSpeed="12.18" duration="58.00" routeLength="634.90" waitingTime="0.00" waitingCount="0" stopTime="0.00" timeLoss="5.57" rerouteNo="0" devices="tripinfo_f_4.13 routing_f_4.13" vType="secondLane" speedFactor="0.93" vaporized=""/>
    <tripinfo id="f_0.16" depart="47.00" departLane="E2_1" departPos="5.10" departSpeed="0.00" departDelay="18.00" arrival="105.00" arrivalLane="E0_1" arrivalPos="246.00" arrivalSpeed="12.17" duration="58.00" routeLength="634.90" waitingTime="0.00" waitingCount="0" stopTime="0.00" timeLoss="5.39" rerouteNo="1" devices="tripinfo_f_0.16 routing_f_0.16" vType="secondLane" speedFactor="1.09" vaporized=""/>
    <tripinfo id="f_5.14" depart="47.00" departLane="E2_4" departPos="5.10" departSpeed="0.00" departDelay="10.00" arrival="105.00" arrivalLane="E0_4" arrivalPos="246.00" arrivalSpeed="12.17" duration="58.00" routeLength="634.90" waitingTime="0.00" waitingCount="0" stopTime="0.00" timeLoss="5.39" rerouteNo="0" devices="tripinfo_f_5.14 routing_f_5.14" vType="secondLane" speedFactor="0.91" vaporized=""/>
    <tripinfo id="f_3.15" depart="48.00" departLane="E2_2" departPos="5.10" departSpeed="0.00" departDelay="15.00" arrival="106.00" arrivalLane="E0_2" arrivalPos="246.00" arrivalSpeed="12.17" duration="58.00" routeLength="634.90" waitingTime="0.00" waitingCount="0" stopTime="0.00" timeLoss="5.39" rerouteNo="0" devices="tripinfo_f_3.15 routing_f_3.15" vType="secondLane" speedFactor="0.80" vaporized=""/>